Program Version,EnergyPlus, Version 25.1.0-68a4a7c774, YMD=2025.10.22 12:58
1,5,Environment Title[],Latitude[deg],Longitude[deg],Time Zone[],Elevation[m]
2,8,Day of Simulation[],Month[],Day of Month[],DST Indicator[1=yes 0=no],Hour[],StartMinute[],EndMinute[],DayType
3,5,Cumulative Day of Simulation[],Month[],Day of Month[],DST Indicator[1=yes 0=no],DayType  ! When Daily Meters Requested
4,2,Cumulative Days of Simulation[],Month[]  ! When Monthly Meters Requested
5,1,Cumulative Days of Simulation[] ! When Run Period Meters Requested
6,1,Calendar Year of Simulation[] ! When Annual Meters Requested
135,1,Electricity:Facility [J] !Hourly
3652,1,ElectricityNet:Facility [J] !Hourly
End of Data Dictionary
1,RUNPERIOD 1,  43.90, -92.50,  -6.00, 398.00
2,1, 1, 1, 0, 1, 0.00,60.00,Holiday
135,133289000.58863151
3652,133289000.58863148
2,1, 1, 1, 0, 2, 0.00,60.00,Holiday
135,119147842.70340326
3652,119147842.70340326
2,1, 1, 1, 0, 3, 0.00,60.00,Holiday
135,128741591.31994426
3652,128741591.31994426
2,1, 1, 1, 0, 4, 0.00,60.00,Holiday
135,120127063.54678413
3652,120127063.5467841
2,1, 1, 1, 0, 5, 0.00,60.00,Holiday
135,131998148.3336139
3652,131998148.33361392
2,1, 1, 1, 0, 6, 0.00,60.00,Holiday
135,125048084.03027579
3652,125048084.03027576
2,1, 1, 1, 0, 7, 0.00,60.00,Holiday
135,152624004.2522556
3652,152624004.25225556
2,1, 1, 1, 0, 8, 0.00,60.00,Holiday
135,135270045.3337401
3652,135182873.84826177
2,1, 1, 1, 0, 9, 0.00,60.00,Holiday
135,129716921.92016964
3652,127617637.8106993
2,1, 1, 1, 0,10, 0.00,60.00,Holiday
135,113488395.27496323
3652,105284348.60231636
2,1, 1, 1, 0,11, 0.00,60.00,Holiday
135,96775765.87529704
3652,74450623.56920724
2,1, 1, 1, 0,12, 0.00,60.00,Holiday
135,86470368.94698676
3652,65792926.954578176
2,1, 1, 1, 0,13, 0.00,60.00,Holiday
135,100176507.34310424
3652,87029394.4885693
2,1, 1, 1, 0,14, 0.00,60.00,Holiday
135,90951411.83277832
3652,81575107.86886114
2,1, 1, 1, 0,15, 0.00,60.00,Holiday
135,103074318.83142205
3652,96470301.08251484
2,1, 1, 1, 0,16, 0.00,60.00,Holiday
135,98609181.78423578
3652,95494584.24348731
2,1, 1, 1, 0,17, 0.00,60.00,Holiday
135,121716557.42779516
3652,121443571.85060565
2,1, 1, 1, 0,18, 0.00,60.00,Holiday
135,125029179.24127188
3652,125029179.24127188
2,1, 1, 1, 0,19, 0.00,60.00,Holiday
135,134596904.6248646
3652,134596904.6248646
2,1, 1, 1, 0,20, 0.00,60.00,Holiday
135,122771941.50269337
3652,122771941.50269338
2,1, 1, 1, 0,21, 0.00,60.00,Holiday
135,133509667.48889074
3652,133509667.48889074
2,1, 1, 1, 0,22, 0.00,60.00,Holiday
135,126251283.70090042
3652,126251283.70090044
2,1, 1, 1, 0,23, 0.00,60.00,Holiday
135,150929460.88063332
3652,150929460.8806333
2,1, 1, 1, 0,24, 0.00,60.00,Holiday
135,138489038.04956996
3652,138489038.04956996
2,2, 1, 2, 0, 1, 0.00,60.00,Monday
135,163233929.79996383
3652,163233929.79996383
2,2, 1, 2, 0, 2, 0.00,60.00,Monday
135,146360040.09867698
3652,146360040.09867698
2,2, 1, 2, 0, 3, 0.00,60.00,Monday
135,160478792.07565597
3652,160478792.07565594
2,2, 1, 2, 0, 4, 0.00,60.00,Monday
135,147436351.0897808
3652,147436351.0897808
2,2, 1, 2, 0, 5, 0.00,60.00,Monday
135,168360822.76403463
3652,168360822.76403457
2,2, 1, 2, 0, 6, 0.00,60.00,Monday
135,373701362.8394076
3652,373701362.8394076
2,2, 1, 2, 0, 7, 0.00,60.00,Monday
135,781293515.3957167
3652,781293515.3957168
2,2, 1, 2, 0, 8, 0.00,60.00,Monday
135,854584059.0754377
3652,854268822.3712313
2,2, 1, 2, 0, 9, 0.00,60.00,Monday
135,742494462.529232
3652,736725102.3934735
2,2, 1, 2, 0,10, 0.00,60.00,Monday
135,613676213.067104
3652,595341980.3000038
2,2, 1, 2, 0,11, 0.00,60.00,Monday
135,528612877.02128124
3652,497893544.38433945
2,2, 1, 2, 0,12, 0.00,60.00,Monday
135,494226677.1908634
3652,457407327.3335264
2,2, 1, 2, 0,13, 0.00,60.00,Monday
135,514572863.81943375
3652,474441088.14492565
2,2, 1, 2, 0,14, 0.00,60.00,Monday
135,432920398.96496385
3652,397753704.48960733
2,2, 1, 2, 0,15, 0.00,60.00,Monday
135,385952206.8043673
3652,361784417.89985657
2,2, 1, 2, 0,16, 0.00,60.00,Monday
135,372181875.9812831
3652,362109031.0224292
2,2, 1, 2, 0,17, 0.00,60.00,Monday
135,403962852.0416356
3652,403180849.1839466
2,2, 1, 2, 0,18, 0.00,60.00,Monday
135,462526102.0852963
3652,462526102.0852963
2,2, 1, 2, 0,19, 0.00,60.00,Monday
135,472117903.4171303
3652,472117903.4171303
2,2, 1, 2, 0,20, 0.00,60.00,Monday
135,443842542.07585925
3652,443842542.07585925
2,2, 1, 2, 0,21, 0.00,60.00,Monday
135,444427747.60644865
3652,444427747.60644853
2,2, 1, 2, 0,22, 0.00,60.00,Monday
135,442869387.50783974
3652,442869387.50783974
2,2, 1, 2, 0,23, 0.00,60.00,Monday
135,77001979.58728579
3652,77001979.58728579
2,2, 1, 2, 0,24, 0.00,60.00,Monday
135,73120671.6809607
3652,73120671.6809607
2,3, 1, 3, 0, 1, 0.00,60.00,Tuesday
135,70804654.57167627
3652,70804654.57167628
2,3, 1, 3, 0, 2, 0.00,60.00,Tuesday
135,81055199.56310958
3652,81055199.5631096
2,3, 1, 3, 0, 3, 0.00,60.00,Tuesday
135,88331453.14884327
3652,88331453.14884329
2,3, 1, 3, 0, 4, 0.00,60.00,Tuesday
135,98890836.57670689
3652,98890836.57670689
2,3, 1, 3, 0, 5, 0.00,60.00,Tuesday
135,106224208.87176403
3652,106224208.87176403
2,3, 1, 3, 0, 6, 0.00,60.00,Tuesday
135,258991794.32251966
3652,258991794.32251966
2,3, 1, 3, 0, 7, 0.00,60.00,Tuesday
135,561757575.7374189
3652,561757575.7374189
2,3, 1, 3, 0, 8, 0.00,60.00,Tuesday
135,649458392.4104462
3652,648718703.099058
2,3, 1, 3, 0, 9, 0.00,60.00,Tuesday
135,553955283.1010485
3652,544919088.3978229
2,3, 1, 3, 0,10, 0.00,60.00,Tuesday
135,451779101.09174097
3652,432323072.66101044
2,3, 1, 3, 0,11, 0.00,60.00,Tuesday
135,383619292.7783776
3652,352100380.2674769
2,3, 1, 3, 0,12, 0.00,60.00,Tuesday
135,356124585.49080175
3652,317521851.3933404
2,3, 1, 3, 0,13, 0.00,60.00,Tuesday
135,386737748.230227
3652,346085648.9311602
2,3, 1, 3, 0,14, 0.00,60.00,Tuesday
135,312572332.0245882
3652,278646274.2935705
2,3, 1, 3, 0,15, 0.00,60.00,Tuesday
135,288175724.3527732
3652,266502362.6916579
2,3, 1, 3, 0,16, 0.00,60.00,Tuesday
135,302617797.7426299
3652,294359883.30925536
2,3, 1, 3, 0,17, 0.00,60.00,Tuesday
135,339297189.9454373
3652,338422500.9249764
2,3, 1, 3, 0,18, 0.00,60.00,Tuesday
135,378640010.1119737
3652,378640010.11197364
2,3, 1, 3, 0,19, 0.00,60.00,Tuesday
135,382243779.47977066
3652,382243779.47977066
2,3, 1, 3, 0,20, 0.00,60.00,Tuesday
135,349365017.5807861
3652,349365017.5807861
2,3, 1, 3, 0,21, 0.00,60.00,Tuesday
135,348840747.99283
3652,348840747.9928299
2,3, 1, 3, 0,22, 0.00,60.00,Tuesday
135,351449645.1617072
3652,351449645.1617073
2,3, 1, 3, 0,23, 0.00,60.00,Tuesday
135,77120265.36597228
3652,77120265.36597228
2,3, 1, 3, 0,24, 0.00,60.00,Tuesday
135,73041041.87258321
3652,73041041.87258321
2,4, 1, 4, 0, 1, 0.00,60.00,Wednesday
135,58588651.21819277
3652,58588651.21819277
2,4, 1, 4, 0, 2, 0.00,60.00,Wednesday
135,62282325.16045982
3652,62282325.16045983
2,4, 1, 4, 0, 3, 0.00,60.00,Wednesday
135,66601304.42560968
3652,66601304.42560966
2,4, 1, 4, 0, 4, 0.00,60.00,Wednesday
135,69864862.08646126
3652,69864862.08646126
2,4, 1, 4, 0, 5, 0.00,60.00,Wednesday
135,76226845.65418735
3652,76226845.65418735
2,4, 1, 4, 0, 6, 0.00,60.00,Wednesday
135,192354848.60876718
3652,192354848.60876715
2,4, 1, 4, 0, 7, 0.00,60.00,Wednesday
135,440067803.8389742
3652,440067803.8389741
2,4, 1, 4, 0, 8, 0.00,60.00,Wednesday
135,534615814.3183574
3652,534372662.9229944
2,4, 1, 4, 0, 9, 0.00,60.00,Wednesday
135,433811220.0452422
3652,427976152.8607074
2,4, 1, 4, 0,10, 0.00,60.00,Wednesday
135,349833072.9481305
3652,332599094.4727291
2,4, 1, 4, 0,11, 0.00,60.00,Wednesday
135,307567077.9649984
3652,276665409.52895033
2,4, 1, 4, 0,12, 0.00,60.00,Wednesday
135,291291170.4245386
3652,252174549.94546446
2,4, 1, 4, 0,13, 0.00,60.00,Wednesday
135,328531865.0267005
3652,288098578.54926544
2,4, 1, 4, 0,14, 0.00,60.00,Wednesday
135,276635688.5393163
3652,241237964.29080826
2,4, 1, 4, 0,15, 0.00,60.00,Wednesday
135,259728925.21621585
3652,235259497.40040392
2,4, 1, 4, 0,16, 0.00,60.00,Wednesday
135,261960786.2631866
3652,251539435.47155043
2,4, 1, 4, 0,17, 0.00,60.00,Wednesday
135,295486093.30709946
3652,294625836.493952
2,4, 1, 4, 0,18, 0.00,60.00,Wednesday
135,313852362.6489382
3652,313852362.6489381
2,4, 1, 4, 0,19, 0.00,60.00,Wednesday
135,325546712.5666566
3652,325546712.5666566
2,4, 1, 4, 0,20, 0.00,60.00,Wednesday
135,302493477.36117953
3652,302493477.3611795
2,4, 1, 4, 0,21, 0.00,60.00,Wednesday
135,308134160.5459804
3652,308134160.5459804
2,4, 1, 4, 0,22, 0.00,60.00,Wednesday
135,321221741.65388536
3652,321221741.65388536
2,4, 1, 4, 0,23, 0.00,60.00,Wednesday
135,77037684.60360943
3652,77037684.60360944
2,4, 1, 4, 0,24, 0.00,60.00,Wednesday
135,73137625.79551506
3652,73137625.79551505
2,5, 1, 5, 0, 1, 0.00,60.00,Thursday
135,61362041.89001631
3652,61362041.89001631
2,5, 1, 5, 0, 2, 0.00,60.00,Thursday
135,71953732.27437146
3652,71953732.27437146
2,5, 1, 5, 0, 3, 0.00,60.00,Thursday
135,75278287.05682473
3652,75278287.05682473
2,5, 1, 5, 0, 4, 0.00,60.00,Thursday
135,80219778.57679644
3652,80219778.57679646
2,5, 1, 5, 0, 5, 0.00,60.00,Thursday
135,82758036.91353953
3652,82758036.91353951
2,5, 1, 5, 0, 6, 0.00,60.00,Thursday
135,227303994.5956152
3652,227303994.5956152
2,5, 1, 5, 0, 7, 0.00,60.00,Thursday
135,470956449.2698314
3652,470956449.2698314
2,5, 1, 5, 0, 8, 0.00,60.00,Thursday
135,559684734.6695304
3652,559379993.0640011
2,5, 1, 5, 0, 9, 0.00,60.00,Thursday
135,485652398.85826975
3652,478144204.430761
2,5, 1, 5, 0,10, 0.00,60.00,Thursday
135,389451515.36483437
3652,365786862.5015264
2,5, 1, 5, 0,11, 0.00,60.00,Thursday
135,335992049.3881972
3652,298357959.79229224
2,5, 1, 5, 0,12, 0.00,60.00,Thursday
135,321225448.9929191
3652,279695960.2256113
2,5, 1, 5, 0,13, 0.00,60.00,Thursday
135,352560150.0989179
3652,319464704.79905564
2,5, 1, 5, 0,14, 0.00,60.00,Thursday
135,318088959.147377
3652,285466780.7281411
2,5, 1, 5, 0,15, 0.00,60.00,Thursday
135,305073136.074451
3652,285655509.2296924
2,5, 1, 5, 0,16, 0.00,60.00,Thursday
135,299474096.5952915
3652,288062008.46416324
2,5, 1, 5, 0,17, 0.00,60.00,Thursday
135,345198569.2516619
3652,344033624.00817955
2,5, 1, 5, 0,18, 0.00,60.00,Thursday
135,374874907.9399232
3652,374874907.9399232
2,5, 1, 5, 0,19, 0.00,60.00,Thursday
135,387057851.06564724
3652,387057851.06564724
2,5, 1, 5, 0,20, 0.00,60.00,Thursday
135,375729588.2186333
3652,375729588.21863335
2,5, 1, 5, 0,21, 0.00,60.00,Thursday
135,377968552.5836395
3652,377968552.58363944
2,5, 1, 5, 0,22, 0.00,60.00,Thursday
135,379702396.3804221
3652,379702396.3804222
2,5, 1, 5, 0,23, 0.00,60.00,Thursday
135,75952653.18454964
3652,75952653.18454964
2,5, 1, 5, 0,24, 0.00,60.00,Thursday
135,88144864.88701878
3652,88144864.88701877
2,6, 1, 6, 0, 1, 0.00,60.00,Friday
135,87198080.81198822
3652,87198080.81198822
2,6, 1, 6, 0, 2, 0.00,60.00,Friday
135,99874998.62210605
3652,99874998.62210605
2,6, 1, 6, 0, 3, 0.00,60.00,Friday
135,107042824.22103196
3652,107042824.221032
2,6, 1, 6, 0, 4, 0.00,60.00,Friday
135,117970825.5038801
3652,117970825.50388011
2,6, 1, 6, 0, 5, 0.00,60.00,Friday
135,133119096.9298484
3652,133119096.92984842
2,6, 1, 6, 0, 6, 0.00,60.00,Friday
135,267063703.33319217
3652,267063703.33319223
2,6, 1, 6, 0, 7, 0.00,60.00,Friday
135,526896095.5842912
3652,526896095.5842911
2,6, 1, 6, 0, 8, 0.00,60.00,Friday
135,643811343.5498722
3652,643641957.8506082
2,6, 1, 6, 0, 9, 0.00,60.00,Friday
135,569648195.2961001
3652,564316923.5797558
2,6, 1, 6, 0,10, 0.00,60.00,Friday
135,496819643.43245316
3652,480567212.3921348
2,6, 1, 6, 0,11, 0.00,60.00,Friday
135,403336863.2980466
3652,371414676.2160064
2,6, 1, 6, 0,12, 0.00,60.00,Friday
135,370173724.5493618
3652,328528839.46187025
2,6, 1, 6, 0,13, 0.00,60.00,Friday
135,386643478.7367108
3652,346629936.7182012
2,6, 1, 6, 0,14, 0.00,60.00,Friday
135,343665073.65078014
3652,315107720.22623414
2,6, 1, 6, 0,15, 0.00,60.00,Friday
135,327661871.17564744
3652,305426896.35479236
2,6, 1, 6, 0,16, 0.00,60.00,Friday
135,333800364.4664226
3652,321448191.99185616
2,6, 1, 6, 0,17, 0.00,60.00,Friday
135,380364742.09226936
3652,379030253.2475286
2,6, 1, 6, 0,18, 0.00,60.00,Friday
135,399827525.6656854
3652,399827525.66568536
2,6, 1, 6, 0,19, 0.00,60.00,Friday
135,398070334.14789814
3652,398070334.1478981
2,6, 1, 6, 0,20, 0.00,60.00,Friday
135,379523604.219981
3652,379523604.219981
2,6, 1, 6, 0,21, 0.00,60.00,Friday
135,375465448.2925046
3652,375465448.2925046
2,6, 1, 6, 0,22, 0.00,60.00,Friday
135,374403794.6018723
3652,374403794.6018724
2,6, 1, 6, 0,23, 0.00,60.00,Friday
135,75952713.67142932
3652,75952713.67142932
2,6, 1, 6, 0,24, 0.00,60.00,Friday
135,82602948.66634855
3652,82602948.66634855
2,7, 1, 7, 0, 1, 0.00,60.00,Saturday
135,68633112.41921794
3652,68633112.41921794
2,7, 1, 7, 0, 2, 0.00,60.00,Saturday
135,74873250.01918846
3652,74873250.01918846
2,7, 1, 7, 0, 3, 0.00,60.00,Saturday
135,85815064.97449256
3652,85815064.97449256
2,7, 1, 7, 0, 4, 0.00,60.00,Saturday
135,94207508.22686668
3652,94207508.22686668
2,7, 1, 7, 0, 5, 0.00,60.00,Saturday
135,112716748.1037778
3652,112716748.1037778
2,7, 1, 7, 0, 6, 0.00,60.00,Saturday
135,255184723.75742406
3652,255184723.75742403
2,7, 1, 7, 0, 7, 0.00,60.00,Saturday
135,514283055.79689944
3652,514283055.7968995
2,7, 1, 7, 0, 8, 0.00,60.00,Saturday
135,590793344.0432758
3652,590587204.7945077
2,7, 1, 7, 0, 9, 0.00,60.00,Saturday
135,443205811.77487254
3652,437418705.0492026
2,7, 1, 7, 0,10, 0.00,60.00,Saturday
135,358709317.2980679
3652,338695651.3018348
2,7, 1, 7, 0,11, 0.00,60.00,Saturday
135,316736992.3170838
3652,286292125.9531037
2,7, 1, 7, 0,12, 0.00,60.00,Saturday
135,334658955.17295307
3652,309285120.37702084
2,7, 1, 7, 0,13, 0.00,60.00,Saturday
135,293276756.4225014
3652,254192381.873976
2,7, 1, 7, 0,14, 0.00,60.00,Saturday
135,261843057.7057097
3652,229093769.69479856
2,7, 1, 7, 0,15, 0.00,60.00,Saturday
135,282951810.6880965
3652,268069081.67722878
2,7, 1, 7, 0,16, 0.00,60.00,Saturday
135,309709636.5407498
3652,300872841.5960614
2,7, 1, 7, 0,17, 0.00,60.00,Saturday
135,345733607.8499428
3652,343795801.53687865
2,7, 1, 7, 0,18, 0.00,60.00,Saturday
135,74022211.72381684
3652,74022211.72381687
2,7, 1, 7, 0,19, 0.00,60.00,Saturday
135,69722873.02323706
3652,69722873.02323706
2,7, 1, 7, 0,20, 0.00,60.00,Saturday
135,66455969.796061225
3652,66455969.79606122
2,7, 1, 7, 0,21, 0.00,60.00,Saturday
135,83391567.75498399
3652,83391567.75498398
2,7, 1, 7, 0,22, 0.00,60.00,Saturday
135,88784274.24184401
3652,88784274.241844
2,7, 1, 7, 0,23, 0.00,60.00,Saturday
135,109976937.49673754
3652,109976937.49673754
2,7, 1, 7, 0,24, 0.00,60.00,Saturday
135,105092566.90800816
3652,105092566.90800814
2,8, 1, 8, 0, 1, 0.00,60.00,Sunday
135,121590295.89241587
3652,121590295.89241587
2,8, 1, 8, 0, 2, 0.00,60.00,Sunday
135,114301447.10740277
3652,114301447.10740276
2,8, 1, 8, 0, 3, 0.00,60.00,Sunday
135,142602641.0823118
3652,142602641.0823118
2,8, 1, 8, 0, 4, 0.00,60.00,Sunday
135,127148130.60963058
3652,127148130.60963058
2,8, 1, 8, 0, 5, 0.00,60.00,Sunday
135,150441577.07002592
3652,150441577.07002592
2,8, 1, 8, 0, 6, 0.00,60.00,Sunday
135,135769921.9920907
3652,135769921.9920907
2,8, 1, 8, 0, 7, 0.00,60.00,Sunday
135,168503057.33561477
3652,168503057.33561477
2,8, 1, 8, 0, 8, 0.00,60.00,Sunday
135,139320238.22874153
3652,138897566.3737704
2,8, 1, 8, 0, 9, 0.00,60.00,Sunday
135,127864871.39543061
3652,122391597.93715677
2,8, 1, 8, 0,10, 0.00,60.00,Sunday
135,88082564.42839497
3652,69953767.76718462
2,8, 1, 8, 0,11, 0.00,60.00,Sunday
135,93591382.02833943
3652,67087083.94215553
2,8, 1, 8, 0,12, 0.00,60.00,Sunday
135,75012740.6001728
3652,43196960.83872534
2,8, 1, 8, 0,13, 0.00,60.00,Sunday
135,66182235.48512286
3652,28936966.670822755
2,8, 1, 8, 0,14, 0.00,60.00,Sunday
135,60972314.85429003
3652,25305090.2043611
2,8, 1, 8, 0,15, 0.00,60.00,Sunday
135,61396318.8381973
3652,37746293.012786664
2,8, 1, 8, 0,16, 0.00,60.00,Sunday
135,60027716.20368445
3652,49666725.24723136
2,8, 1, 8, 0,17, 0.00,60.00,Sunday
135,76905392.62694548
3652,75473673.93159853
2,8, 1, 8, 0,18, 0.00,60.00,Sunday
135,98880198.20225246
3652,98880198.20225248
2,8, 1, 8, 0,19, 0.00,60.00,Sunday
135,107572987.421556
3652,107572987.42155601
2,8, 1, 8, 0,20, 0.00,60.00,Sunday
135,100343549.0592108
3652,100343549.0592108
2,8, 1, 8, 0,21, 0.00,60.00,Sunday
135,108860152.3467232
3652,108860152.34672318
2,8, 1, 8, 0,22, 0.00,60.00,Sunday
135,102265078.47759531
3652,102265078.47759531
2,8, 1, 8, 0,23, 0.00,60.00,Sunday
135,113710133.90942612
3652,113710133.90942612
2,8, 1, 8, 0,24, 0.00,60.00,Sunday
135,110126267.51266244
3652,110126267.51266243
2,9, 1, 9, 0, 1, 0.00,60.00,Monday
135,129625731.3676855
3652,129625731.3676855
2,9, 1, 9, 0, 2, 0.00,60.00,Monday
135,121101727.881495
3652,121101727.881495
2,9, 1, 9, 0, 3, 0.00,60.00,Monday
135,131034734.04708487
3652,131034734.04708487
2,9, 1, 9, 0, 4, 0.00,60.00,Monday
135,121678187.61079189
3652,121678187.61079186
2,9, 1, 9, 0, 5, 0.00,60.00,Monday
135,136423669.09015107
3652,136423669.09015104
2,9, 1, 9, 0, 6, 0.00,60.00,Monday
135,288679909.4131222
3652,288679909.4131222
2,9, 1, 9, 0, 7, 0.00,60.00,Monday
135,608790385.1102946
3652,608790385.1102946
2,9, 1, 9, 0, 8, 0.00,60.00,Monday
135,680210886.0144815
3652,679830915.9768294
2,9, 1, 9, 0, 9, 0.00,60.00,Monday
135,547613805.5921533
3652,542111756.0377221
2,9, 1, 9, 0,10, 0.00,60.00,Monday
135,452329827.07128745
3652,437421854.3527039
2,9, 1, 9, 0,11, 0.00,60.00,Monday
135,440321047.1396919
3652,427710994.0834251
2,9, 1, 9, 0,12, 0.00,60.00,Monday
135,414914084.48304206
3652,397208716.4401273
2,9, 1, 9, 0,13, 0.00,60.00,Monday
135,404509672.7035529
3652,369734917.77315193
2,9, 1, 9, 0,14, 0.00,60.00,Monday
135,331148480.0738764
3652,298433979.89010257
2,9, 1, 9, 0,15, 0.00,60.00,Monday
135,304142972.0041466
3652,283206245.1433088
2,9, 1, 9, 0,16, 0.00,60.00,Monday
135,295376169.6860006
3652,284349813.178571
2,9, 1, 9, 0,17, 0.00,60.00,Monday
135,324332614.93813515
3652,322912683.1188304
2,9, 1, 9, 0,18, 0.00,60.00,Monday
135,372719394.5932336
3652,372719394.5932336
2,9, 1, 9, 0,19, 0.00,60.00,Monday
135,361788960.31643254
3652,361788960.31643254
2,9, 1, 9, 0,20, 0.00,60.00,Monday
135,343639544.58157897
3652,343639544.58157897
2,9, 1, 9, 0,21, 0.00,60.00,Monday
135,348577935.1275714
3652,348577935.1275714
2,9, 1, 9, 0,22, 0.00,60.00,Monday
135,353101213.008996
3652,353101213.0089961
2,9, 1, 9, 0,23, 0.00,60.00,Monday
135,76857626.08104184
3652,76857626.08104186
2,9, 1, 9, 0,24, 0.00,60.00,Monday
135,73111721.9188657
3652,73111721.9188657
2,10, 1,10, 0, 1, 0.00,60.00,Tuesday
135,58588651.21819277
3652,58588651.21819277
2,10, 1,10, 0, 2, 0.00,60.00,Tuesday
135,59066781.478421785
3652,59066781.478421785
2,10, 1,10, 0, 3, 0.00,60.00,Tuesday
135,65518434.04766213
3652,65518434.04766215
2,10, 1,10, 0, 4, 0.00,60.00,Tuesday
135,75137699.42652112
3652,75137699.42652112
2,10, 1,10, 0, 5, 0.00,60.00,Tuesday
135,81251672.17516695
3652,81251672.17516695
2,10, 1,10, 0, 6, 0.00,60.00,Tuesday
135,210514174.29220244
3652,210514174.2922024
2,10, 1,10, 0, 7, 0.00,60.00,Tuesday
135,462834717.7789854
3652,462834717.7789854
2,10, 1,10, 0, 8, 0.00,60.00,Tuesday
135,553174426.9233496
3652,552493515.6288724
2,10, 1,10, 0, 9, 0.00,60.00,Tuesday
135,468823897.2330339
3652,462017682.8836539
2,10, 1,10, 0,10, 0.00,60.00,Tuesday
135,379802579.56453145
3652,364634499.4825368
2,10, 1,10, 0,11, 0.00,60.00,Tuesday
135,352511510.4322139
3652,333753463.23384583
2,10, 1,10, 0,12, 0.00,60.00,Tuesday
135,332873229.5091185
3652,310174560.1111588
2,10, 1,10, 0,13, 0.00,60.00,Tuesday
135,351132215.99639493
3652,323969643.5980287
2,10, 1,10, 0,14, 0.00,60.00,Tuesday
135,306964908.89522195
3652,282654811.4245722
2,10, 1,10, 0,15, 0.00,60.00,Tuesday
135,309672090.01835716
3652,300578021.76205957
2,10, 1,10, 0,16, 0.00,60.00,Tuesday
135,320190411.31860435
3652,316329569.77649295
2,10, 1,10, 0,17, 0.00,60.00,Tuesday
135,336528935.78820765
3652,335791962.7749867
2,10, 1,10, 0,18, 0.00,60.00,Tuesday
135,351227145.5251327
3652,351227145.5251327
2,10, 1,10, 0,19, 0.00,60.00,Tuesday
135,350705218.2748211
3652,350705218.27482116
2,10, 1,10, 0,20, 0.00,60.00,Tuesday
135,311469110.85179746
3652,311469110.85179746
2,10, 1,10, 0,21, 0.00,60.00,Tuesday
135,302498719.8478571
3652,302498719.8478571
2,10, 1,10, 0,22, 0.00,60.00,Tuesday
135,304954603.9172057
3652,304954603.9172057
2,10, 1,10, 0,23, 0.00,60.00,Tuesday
135,77014354.50129575
3652,77014354.50129575
2,10, 1,10, 0,24, 0.00,60.00,Tuesday
135,73130900.30980462
3652,73130900.30980462
2,11, 1,11, 0, 1, 0.00,60.00,Wednesday
135,58588651.21819277
3652,58588651.21819277
2,11, 1,11, 0, 2, 0.00,60.00,Wednesday
135,59404807.568158925
3652,59404807.568158925
2,11, 1,11, 0, 3, 0.00,60.00,Wednesday
135,58588651.21819277
3652,58588651.21819277
2,11, 1,11, 0, 4, 0.00,60.00,Wednesday
135,58896541.73288395
3652,58896541.73288395
2,11, 1,11, 0, 5, 0.00,60.00,Wednesday
135,58588651.21819277
3652,58588651.21819277
2,11, 1,11, 0, 6, 0.00,60.00,Wednesday
135,150970757.9768362
3652,150970757.9768362
2,11, 1,11, 0, 7, 0.00,60.00,Wednesday
135,354363546.21272886
3652,354363546.21272886
2,11, 1,11, 0, 8, 0.00,60.00,Wednesday
135,458639758.7713584
3652,458251139.29243183
2,11, 1,11, 0, 9, 0.00,60.00,Wednesday
135,364432403.7070134
3652,358120310.3439173
2,11, 1,11, 0,10, 0.00,60.00,Wednesday
135,295438312.47514683
3652,277028055.46928835
2,11, 1,11, 0,11, 0.00,60.00,Wednesday
135,274755672.0440921
3652,253230453.0391606
2,11, 1,11, 0,12, 0.00,60.00,Wednesday
135,283301314.4860907
3652,268582044.7822922
2,11, 1,11, 0,13, 0.00,60.00,Wednesday
135,305059093.3650037
3652,279783353.2713397
2,11, 1,11, 0,14, 0.00,60.00,Wednesday
135,263856328.83528888
3652,237133585.21366873
2,11, 1,11, 0,15, 0.00,60.00,Wednesday
135,248279835.26811084
3652,223248018.58002353
2,11, 1,11, 0,16, 0.00,60.00,Wednesday
135,265307064.37796873
3652,258248949.5298711
2,11, 1,11, 0,17, 0.00,60.00,Wednesday
135,292584943.40831965
3652,291679163.43994397
2,11, 1,11, 0,18, 0.00,60.00,Wednesday
135,299574793.1792021
3652,299574793.17920196
2,11, 1,11, 0,19, 0.00,60.00,Wednesday
135,267502339.8602681
3652,267502339.86026812
2,11, 1,11, 0,20, 0.00,60.00,Wednesday
135,252933275.18805546
3652,252933275.18805534
2,11, 1,11, 0,21, 0.00,60.00,Wednesday
135,255356337.72926453
3652,255356337.72926453
2,11, 1,11, 0,22, 0.00,60.00,Wednesday
135,257528703.30700797
3652,257528703.3070079
2,11, 1,11, 0,23, 0.00,60.00,Wednesday
135,76729582.12700328
3652,76729582.12700328
2,11, 1,11, 0,24, 0.00,60.00,Wednesday
135,73029204.01185137
3652,73029204.01185137
2,12, 1,12, 0, 1, 0.00,60.00,Thursday
135,58588651.21819277
3652,58588651.21819277
2,12, 1,12, 0, 2, 0.00,60.00,Thursday
135,59235643.26141068
3652,59235643.26141068
2,12, 1,12, 0, 3, 0.00,60.00,Thursday
135,58588651.21819277
3652,58588651.21819277
2,12, 1,12, 0, 4, 0.00,60.00,Thursday
135,58891547.082333505
3652,58891547.082333505
2,12, 1,12, 0, 5, 0.00,60.00,Thursday
135,58588651.21819277
3652,58588651.21819277
2,12, 1,12, 0, 6, 0.00,60.00,Thursday
135,133233411.07140535
3652,133233411.07140535
2,12, 1,12, 0, 7, 0.00,60.00,Thursday
135,317308701.92594033
3652,317308701.9259403
2,12, 1,12, 0, 8, 0.00,60.00,Thursday
135,420795038.220334
3652,420250246.38639337
2,12, 1,12, 0, 9, 0.00,60.00,Thursday
135,335989995.8628725
3652,329260720.45122063
2,12, 1,12, 0,10, 0.00,60.00,Thursday
135,272985517.634984
3652,254475217.08726424
2,12, 1,12, 0,11, 0.00,60.00,Thursday
135,248879409.59286276
3652,218645938.0081703
2,12, 1,12, 0,12, 0.00,60.00,Thursday
135,241638211.58414072
3652,203674643.85350996
2,12, 1,12, 0,13, 0.00,60.00,Thursday
135,275287573.84789073
3652,235951806.53958315
2,12, 1,12, 0,14, 0.00,60.00,Thursday
135,226824780.7021515
3652,195340113.9205174
2,12, 1,12, 0,15, 0.00,60.00,Thursday
135,219427316.92094356
3652,194108208.7051372
2,12, 1,12, 0,16, 0.00,60.00,Thursday
135,221187519.81552935
3652,208996616.6024798
2,12, 1,12, 0,17, 0.00,60.00,Thursday
135,245436741.18576843
3652,243788161.79583263
2,12, 1,12, 0,18, 0.00,60.00,Thursday
135,242540878.13192666
3652,242540878.13192663
2,12, 1,12, 0,19, 0.00,60.00,Thursday
135,196290473.88800272
3652,196290473.88800272
2,12, 1,12, 0,20, 0.00,60.00,Thursday
135,193055957.455242
3652,193055957.455242
2,12, 1,12, 0,21, 0.00,60.00,Thursday
135,196481439.56400362
3652,196481439.56400362
2,12, 1,12, 0,22, 0.00,60.00,Thursday
135,197336315.41675085
3652,197336315.41675085
2,12, 1,12, 0,23, 0.00,60.00,Thursday
135,77011065.4692602
3652,77011065.46926022
2,12, 1,12, 0,24, 0.00,60.00,Thursday
135,73015761.52437249
3652,73015761.52437249
2,13, 1,13, 0, 1, 0.00,60.00,Friday
135,58588651.21819277
3652,58588651.21819277
2,13, 1,13, 0, 2, 0.00,60.00,Friday
135,59224536.987780824
3652,59224536.987780824
2,13, 1,13, 0, 3, 0.00,60.00,Friday
135,58588651.21819277
3652,58588651.21819277
2,13, 1,13, 0, 4, 0.00,60.00,Friday
135,58884222.05869223
3652,58884222.05869223
2,13, 1,13, 0, 5, 0.00,60.00,Friday
135,58588651.21819277
3652,58588651.21819277
2,13, 1,13, 0, 6, 0.00,60.00,Friday
135,83025455.24564385
3652,83025455.24564385
2,13, 1,13, 0, 7, 0.00,60.00,Friday
135,252125055.14135906
3652,252125055.1413591
2,13, 1,13, 0, 8, 0.00,60.00,Friday
135,354195994.7871013
3652,353798219.5535674
2,13, 1,13, 0, 9, 0.00,60.00,Friday
135,307153785.31601816
3652,301743062.7831117
2,13, 1,13, 0,10, 0.00,60.00,Friday
135,255910369.93606243
3652,238085805.7019318
2,13, 1,13, 0,11, 0.00,60.00,Friday
135,238738699.21220416
3652,207635835.8023086
2,13, 1,13, 0,12, 0.00,60.00,Friday
135,224917069.10427496
3652,187390003.55553418
2,13, 1,13, 0,13, 0.00,60.00,Friday
135,261694293.0201414
3652,224667153.92471665
2,13, 1,13, 0,14, 0.00,60.00,Friday
135,215874433.84135312
3652,183839882.27088857
2,13, 1,13, 0,15, 0.00,60.00,Friday
135,211828814.333132
3652,188630153.28165552
2,13, 1,13, 0,16, 0.00,60.00,Friday
135,218176298.4372722
3652,210265006.17071277
2,13, 1,13, 0,17, 0.00,60.00,Friday
135,239110489.2399619
3652,237531772.0515512
2,13, 1,13, 0,18, 0.00,60.00,Friday
135,233682351.50815833
3652,233682351.50815827
2,13, 1,13, 0,19, 0.00,60.00,Friday
135,178514027.78933164
3652,178514027.78933167
2,13, 1,13, 0,20, 0.00,60.00,Friday
135,176147123.41227245
3652,176147123.41227245
2,13, 1,13, 0,21, 0.00,60.00,Friday
135,180647297.54338285
3652,180647297.54338282
2,13, 1,13, 0,22, 0.00,60.00,Friday
135,183568926.55334586
3652,183568926.55334586
2,13, 1,13, 0,23, 0.00,60.00,Friday
135,76996229.19892517
3652,76996229.19892517
2,13, 1,13, 0,24, 0.00,60.00,Friday
135,73012216.31623189
3652,73012216.31623189
2,14, 1,14, 0, 1, 0.00,60.00,Saturday
135,47338057.174814485
3652,47338057.17481448
2,14, 1,14, 0, 2, 0.00,60.00,Saturday
135,47969647.91200679
3652,47969647.91200679
2,14, 1,14, 0, 3, 0.00,60.00,Saturday
135,47338057.174814485
3652,47338057.17481448
2,14, 1,14, 0, 4, 0.00,60.00,Saturday
135,47630449.17506894
3652,47630449.17506894
2,14, 1,14, 0, 5, 0.00,60.00,Saturday
135,47338057.174814485
3652,47338057.17481448
2,14, 1,14, 0, 6, 0.00,60.00,Saturday
135,75211239.39883427
3652,75211239.39883427
2,14, 1,14, 0, 7, 0.00,60.00,Saturday
135,244034747.74472594
3652,244034747.74472594
2,14, 1,14, 0, 8, 0.00,60.00,Saturday
135,308619367.60671157
3652,308506436.8387716
2,14, 1,14, 0, 9, 0.00,60.00,Saturday
135,277761961.70117867
3652,275459129.9045748
2,14, 1,14, 0,10, 0.00,60.00,Saturday
135,257062402.43396977
3652,250098077.16726086
2,14, 1,14, 0,11, 0.00,60.00,Saturday
135,235391952.7534659
3652,224648401.06011623
2,14, 1,14, 0,12, 0.00,60.00,Saturday
135,229055807.7991224
3652,215620928.43884033
2,14, 1,14, 0,13, 0.00,60.00,Saturday
135,206901953.2791164
3652,188787895.3299888
2,14, 1,14, 0,14, 0.00,60.00,Saturday
135,185405067.83863077
3652,160292535.7224605
2,14, 1,14, 0,15, 0.00,60.00,Saturday
135,181149112.54091948
3652,163481086.23289862
2,14, 1,14, 0,16, 0.00,60.00,Saturday
135,184394384.3041232
3652,171532397.00489077
2,14, 1,14, 0,17, 0.00,60.00,Saturday
135,206596720.71252564
3652,203486278.33542624
2,14, 1,14, 0,18, 0.00,60.00,Saturday
135,73242354.9181429
3652,73242354.91814293
2,14, 1,14, 0,19, 0.00,60.00,Saturday
135,64930426.8892593
3652,64930426.88925932
2,14, 1,14, 0,20, 0.00,60.00,Saturday
135,49951441.715359025
3652,49951441.715359025
2,14, 1,14, 0,21, 0.00,60.00,Saturday
135,56690451.87393176
3652,56690451.87393175
2,14, 1,14, 0,22, 0.00,60.00,Saturday
135,63195059.71140073
3652,63195059.71140072
2,14, 1,14, 0,23, 0.00,60.00,Saturday
135,65781579.01780369
3652,65781579.017803684
2,14, 1,14, 0,24, 0.00,60.00,Saturday
135,66041441.37926425
3652,66041441.37926425
2,15, 1,15, 0, 1, 0.00,60.00,Sunday
135,68766630.70948085
3652,68766630.70948085
2,15, 1,15, 0, 2, 0.00,60.00,Sunday
135,69007321.28706186
3652,69007321.28706184
2,15, 1,15, 0, 3, 0.00,60.00,Sunday
135,72416101.61957292
3652,72416101.61957292
2,15, 1,15, 0, 4, 0.00,60.00,Sunday
135,73342868.78301543
3652,73342868.78301543
2,15, 1,15, 0, 5, 0.00,60.00,Sunday
135,82126590.74787101
3652,82126590.74787098
2,15, 1,15, 0, 6, 0.00,60.00,Sunday
135,88013920.3680193
3652,88013920.36801931
2,15, 1,15, 0, 7, 0.00,60.00,Sunday
135,101861525.99537729
3652,101861525.99537727