Program Version,EnergyPlus, Version 25.1.0-68a4a7c774, YMD=2025.10.21 14:36
1,5,Environment Title[],Latitude[deg],Longitude[deg],Time Zone[],Elevation[m]
2,8,Day of Simulation[],Month[],Day of Month[],DST Indicator[1=yes 0=no],Hour[],StartMinute[],EndMinute[],DayType
3,5,Cumulative Day of Simulation[],Month[],Day of Month[],DST Indicator[1=yes 0=no],DayType  ! When Daily Meters Requested
4,2,Cumulative Days of Simulation[],Month[]  ! When Monthly Meters Requested
5,1,Cumulative Days of Simulation[] ! When Run Period Meters Requested
6,1,Calendar Year of Simulation[] ! When Annual Meters Requested
135,1,Electricity:Facility [J] !Hourly
3652,1,ElectricityNet:Facility [J] !Hourly
End of Data Dictionary
1,RUNPERIOD 1,  43.90, -92.50,  -6.00, 398.00
2,1, 1, 1, 0, 1, 0.00,60.00,Holiday
135,133226774.90984315
3652,133226774.90984315
2,1, 1, 1, 0, 2, 0.00,60.00,Holiday
135,118762290.00239067
3652,118762290.00239065
2,1, 1, 1, 0, 3, 0.00,60.00,Holiday
135,128643661.04901226
3652,128643661.04901223
2,1, 1, 1, 0, 4, 0.00,60.00,Holiday
135,119711580.29742086
3652,119711580.29742086
2,1, 1, 1, 0, 5, 0.00,60.00,Holiday
135,131894896.04106674
3652,131894896.04106674
2,1, 1, 1, 0, 6, 0.00,60.00,Holiday
135,124610605.52418104
3652,124610605.52418101
2,1, 1, 1, 0, 7, 0.00,60.00,Holiday
135,151465113.39028263
3652,151465113.3902827
2,1, 1, 1, 0, 8, 0.00,60.00,Holiday
135,134230371.990129
3652,134143200.50465067
2,1, 1, 1, 0, 9, 0.00,60.00,Holiday
135,128372307.82148375
3652,126273023.71201341
2,1, 1, 1, 0,10, 0.00,60.00,Holiday
135,112915888.15633173
3652,104711841.4836849
2,1, 1, 1, 0,11, 0.00,60.00,Holiday
135,96062431.91198263
3652,73737289.60589279
2,1, 1, 1, 0,12, 0.00,60.00,Holiday
135,85341003.8704488
3652,64663561.87804021
2,1, 1, 1, 0,13, 0.00,60.00,Holiday
135,98565850.87097977
3652,85418738.01644485
2,1, 1, 1, 0,14, 0.00,60.00,Holiday
135,88962760.15054163
3652,79586456.18662445
2,1, 1, 1, 0,15, 0.00,60.00,Holiday
135,101670804.89782022
3652,95066787.14891301
2,1, 1, 1, 0,16, 0.00,60.00,Holiday
135,97309835.20676452
3652,94195237.66601606
2,1, 1, 1, 0,17, 0.00,60.00,Holiday
135,120332547.49318254
3652,120059561.915993
2,1, 1, 1, 0,18, 0.00,60.00,Holiday
135,123871623.35902232
3652,123871623.35902232
2,1, 1, 1, 0,19, 0.00,60.00,Holiday
135,133809191.13587087
3652,133809191.13587084
2,1, 1, 1, 0,20, 0.00,60.00,Holiday
135,122701502.85005388
3652,122701502.85005388
2,1, 1, 1, 0,21, 0.00,60.00,Holiday
135,133115231.69732244
3652,133115231.69732243
2,1, 1, 1, 0,22, 0.00,60.00,Holiday
135,126227433.13143276
3652,126227433.13143274
2,1, 1, 1, 0,23, 0.00,60.00,Holiday
135,150583912.67636728
3652,150583912.67636728
2,1, 1, 1, 0,24, 0.00,60.00,Holiday
135,138447639.75886896
3652,138447639.75886896
2,2, 1, 2, 0, 1, 0.00,60.00,Monday
135,162863749.8599993
3652,162863749.8599993
2,2, 1, 2, 0, 2, 0.00,60.00,Monday
135,146322349.27465102
3652,146322349.27465105
2,2, 1, 2, 0, 3, 0.00,60.00,Monday
135,160111816.63031566
3652,160111816.63031566
2,2, 1, 2, 0, 4, 0.00,60.00,Monday
135,147089201.00440878
3652,147089201.00440878
2,2, 1, 2, 0, 5, 0.00,60.00,Monday
135,168320244.5460432
3652,168320244.5460432
2,2, 1, 2, 0, 6, 0.00,60.00,Monday
135,372871823.359945
3652,372871823.35994494
2,2, 1, 2, 0, 7, 0.00,60.00,Monday
135,777539082.3668351
3652,777539082.3668351
2,2, 1, 2, 0, 8, 0.00,60.00,Monday
135,845091307.8389217
3652,844776071.1347153
2,2, 1, 2, 0, 9, 0.00,60.00,Monday
135,727619975.4357677
3652,721850615.3000094
2,2, 1, 2, 0,10, 0.00,60.00,Monday
135,601173944.4988092
3652,582839711.7317088
2,2, 1, 2, 0,11, 0.00,60.00,Monday
135,520128635.6724746
3652,489409303.0355327
2,2, 1, 2, 0,12, 0.00,60.00,Monday
135,486524764.804104
3652,449705414.94676703
2,2, 1, 2, 0,13, 0.00,60.00,Monday
135,506996044.1682594
3652,466864268.4937512
2,2, 1, 2, 0,14, 0.00,60.00,Monday
135,431012269.11081666
3652,395845574.63546014
2,2, 1, 2, 0,15, 0.00,60.00,Monday
135,384601709.79836196
3652,360433920.8938511
2,2, 1, 2, 0,16, 0.00,60.00,Monday
135,370460416.5943179
3652,360387571.635464
2,2, 1, 2, 0,17, 0.00,60.00,Monday
135,402699131.8466788
3652,401917128.9889897
2,2, 1, 2, 0,18, 0.00,60.00,Monday
135,455271652.2220198
3652,455271652.2220198
2,2, 1, 2, 0,19, 0.00,60.00,Monday
135,464292820.2162975
3652,464292820.21629757
2,2, 1, 2, 0,20, 0.00,60.00,Monday
135,441803378.32653564
3652,441803378.3265356
2,2, 1, 2, 0,21, 0.00,60.00,Monday
135,448936767.4325389
3652,448936767.432539
2,2, 1, 2, 0,22, 0.00,60.00,Monday
135,438638874.59232235
3652,438638874.59232247
2,2, 1, 2, 0,23, 0.00,60.00,Monday
135,75402743.90247798
3652,75402743.90247798
2,2, 1, 2, 0,24, 0.00,60.00,Monday
135,71865988.08834744
3652,71865988.08834744
2,3, 1, 3, 0, 1, 0.00,60.00,Tuesday
135,70822648.80412905
3652,70822648.80412905
2,3, 1, 3, 0, 2, 0.00,60.00,Tuesday
135,84404342.74425648
3652,84404342.74425647
2,3, 1, 3, 0, 3, 0.00,60.00,Tuesday
135,92115418.46299729
3652,92115418.46299729
2,3, 1, 3, 0, 4, 0.00,60.00,Tuesday
135,98628317.67456943
3652,98628317.67456943
2,3, 1, 3, 0, 5, 0.00,60.00,Tuesday
135,113356559.52831018
3652,113356559.52831016
2,3, 1, 3, 0, 6, 0.00,60.00,Tuesday
135,247030735.1223787
3652,247030735.1223787
2,3, 1, 3, 0, 7, 0.00,60.00,Tuesday
135,560990476.0808439
3652,560990476.080844
2,3, 1, 3, 0, 8, 0.00,60.00,Tuesday
135,642988965.2894487
3652,642249275.9780605
2,3, 1, 3, 0, 9, 0.00,60.00,Tuesday
135,547574348.2473203
3652,538538153.5440947
2,3, 1, 3, 0,10, 0.00,60.00,Tuesday
135,449101709.3151064
3652,429645680.88437587
2,3, 1, 3, 0,11, 0.00,60.00,Tuesday
135,383890493.92940605
3652,352371581.4185053
2,3, 1, 3, 0,12, 0.00,60.00,Tuesday
135,356006702.2565334
3652,317403968.15907204
2,3, 1, 3, 0,13, 0.00,60.00,Tuesday
135,383398230.0525405
3652,342746130.75347376
2,3, 1, 3, 0,14, 0.00,60.00,Tuesday
135,313838913.8661674
3652,279912856.1351497
2,3, 1, 3, 0,15, 0.00,60.00,Tuesday
135,288937442.93396294
3652,267264081.27284756
2,3, 1, 3, 0,16, 0.00,60.00,Tuesday
135,304560212.2535432
3652,296302297.82016873
2,3, 1, 3, 0,17, 0.00,60.00,Tuesday
135,342001753.36532277
3652,341127064.344862
2,3, 1, 3, 0,18, 0.00,60.00,Tuesday
135,373587035.6143363
3652,373587035.61433625
2,3, 1, 3, 0,19, 0.00,60.00,Tuesday
135,380009192.8521215
3652,380009192.8521216
2,3, 1, 3, 0,20, 0.00,60.00,Tuesday
135,353422074.56329083
3652,353422074.56329083
2,3, 1, 3, 0,21, 0.00,60.00,Tuesday
135,353018680.24747336
3652,353018680.24747336
2,3, 1, 3, 0,22, 0.00,60.00,Tuesday
135,350335728.5985332
3652,350335728.5985333
2,3, 1, 3, 0,23, 0.00,60.00,Tuesday
135,75402743.90247798
3652,75402743.90247798
2,3, 1, 3, 0,24, 0.00,60.00,Tuesday
135,71865988.08834744
3652,71865988.08834744
2,4, 1, 4, 0, 1, 0.00,60.00,Wednesday
135,58588651.21819277
3652,58588651.21819277
2,4, 1, 4, 0, 2, 0.00,60.00,Wednesday
135,61629599.36336781
3652,61629599.36336781
2,4, 1, 4, 0, 3, 0.00,60.00,Wednesday
135,66637662.99300608
3652,66637662.99300608
2,4, 1, 4, 0, 4, 0.00,60.00,Wednesday
135,69609952.9854386
3652,69609952.9854386
2,4, 1, 4, 0, 5, 0.00,60.00,Wednesday
135,76266565.27306966
3652,76266565.27306966
2,4, 1, 4, 0, 6, 0.00,60.00,Wednesday
135,193102431.62963298
3652,193102431.62963298
2,4, 1, 4, 0, 7, 0.00,60.00,Wednesday
135,438405326.11999345
3652,438405326.1199934
2,4, 1, 4, 0, 8, 0.00,60.00,Wednesday
135,533045547.61487
3652,532802396.219507
2,4, 1, 4, 0, 9, 0.00,60.00,Wednesday
135,435314440.6239651
3652,429479373.4394303
2,4, 1, 4, 0,10, 0.00,60.00,Wednesday
135,352218757.4924026
3652,334984779.01700115
2,4, 1, 4, 0,11, 0.00,60.00,Wednesday
135,309864190.4462291
3652,278962522.01018107
2,4, 1, 4, 0,12, 0.00,60.00,Wednesday
135,293730130.830457
3652,254613510.35138267
2,4, 1, 4, 0,13, 0.00,60.00,Wednesday
135,327081383.92379284
3652,286648097.44635785
2,4, 1, 4, 0,14, 0.00,60.00,Wednesday
135,279689799.93759805
3652,244292075.68909
2,4, 1, 4, 0,15, 0.00,60.00,Wednesday
135,261935251.0728967
3652,237465823.25708473
2,4, 1, 4, 0,16, 0.00,60.00,Wednesday
135,264297705.40187326
3652,253876354.61023712
2,4, 1, 4, 0,17, 0.00,60.00,Wednesday
135,297482950.68511736
3652,296622693.8719699
2,4, 1, 4, 0,18, 0.00,60.00,Wednesday
135,312069501.2759359
3652,312069501.27593595
2,4, 1, 4, 0,19, 0.00,60.00,Wednesday
135,321551376.04607815
3652,321551376.0460781
2,4, 1, 4, 0,20, 0.00,60.00,Wednesday
135,304486673.6498779
3652,304486673.6498779
2,4, 1, 4, 0,21, 0.00,60.00,Wednesday
135,311581841.48797584
3652,311581841.4879758
2,4, 1, 4, 0,22, 0.00,60.00,Wednesday
135,320007137.1033156
3652,320007137.10331565
2,4, 1, 4, 0,23, 0.00,60.00,Wednesday
135,75402743.90247798
3652,75402743.90247798
2,4, 1, 4, 0,24, 0.00,60.00,Wednesday
135,71865988.08834744
3652,71865988.08834744
2,5, 1, 5, 0, 1, 0.00,60.00,Thursday
135,61375287.06084129
3652,61375287.06084129
2,5, 1, 5, 0, 2, 0.00,60.00,Thursday
135,71169152.55533254
3652,71169152.55533254
2,5, 1, 5, 0, 3, 0.00,60.00,Thursday
135,75320139.44768994
3652,75320139.44768995
2,5, 1, 5, 0, 4, 0.00,60.00,Thursday
135,79939420.08880556
3652,79939420.08880556
2,5, 1, 5, 0, 5, 0.00,60.00,Thursday
135,82785544.4921184
3652,82785544.4921184
2,5, 1, 5, 0, 6, 0.00,60.00,Thursday
135,227478060.0109101
3652,227478060.0109101
2,5, 1, 5, 0, 7, 0.00,60.00,Thursday
135,468334204.2213675
3652,468334204.2213676
2,5, 1, 5, 0, 8, 0.00,60.00,Thursday
135,556812166.0735676
3652,556507424.4680384
2,5, 1, 5, 0, 9, 0.00,60.00,Thursday
135,482619335.9160485
3652,475111141.4885398
2,5, 1, 5, 0,10, 0.00,60.00,Thursday
135,391395206.17188543
3652,367730553.30857736
2,5, 1, 5, 0,11, 0.00,60.00,Thursday
135,337888545.615846
3652,300254456.01994103
2,5, 1, 5, 0,12, 0.00,60.00,Thursday
135,323365905.59078586
3652,281836416.82347804
2,5, 1, 5, 0,13, 0.00,60.00,Thursday
135,351031202.7137314
3652,317935757.4138692
2,5, 1, 5, 0,14, 0.00,60.00,Thursday
135,318942093.28193164
3652,286319914.86269575
2,5, 1, 5, 0,15, 0.00,60.00,Thursday
135,307079466.0955016
3652,287661839.2507429
2,5, 1, 5, 0,16, 0.00,60.00,Thursday
135,301153735.31713545
3652,289741647.1860072
2,5, 1, 5, 0,17, 0.00,60.00,Thursday
135,346770727.36463666
3652,345605782.12115425
2,5, 1, 5, 0,18, 0.00,60.00,Thursday
135,373161487.04382867
3652,373161487.04382855
2,5, 1, 5, 0,19, 0.00,60.00,Thursday
135,379481192.04132307
3652,379481192.0413231
2,5, 1, 5, 0,20, 0.00,60.00,Thursday
135,371033441.65869814
3652,371033441.6586981
2,5, 1, 5, 0,21, 0.00,60.00,Thursday
135,376433409.97858
3652,376433409.9785799
2,5, 1, 5, 0,22, 0.00,60.00,Thursday
135,382506089.0577519
3652,382506089.057752
2,5, 1, 5, 0,23, 0.00,60.00,Thursday
135,75402743.90247798
3652,75402743.90247798
2,5, 1, 5, 0,24, 0.00,60.00,Thursday
135,86793456.01512897
3652,86793456.01512896
2,6, 1, 6, 0, 1, 0.00,60.00,Friday
135,86191700.76533324
3652,86191700.76533324
2,6, 1, 6, 0, 2, 0.00,60.00,Friday
135,99943587.99040729
3652,99943587.9904073
2,6, 1, 6, 0, 3, 0.00,60.00,Friday
135,106778185.08352408
3652,106778185.08352408
2,6, 1, 6, 0, 4, 0.00,60.00,Friday
135,118117748.67223649
3652,118117748.6722365
2,6, 1, 6, 0, 5, 0.00,60.00,Friday
135,133179632.8559268
3652,133179632.8559268
2,6, 1, 6, 0, 6, 0.00,60.00,Friday
135,267335618.9041023
3652,267335618.9041023
2,6, 1, 6, 0, 7, 0.00,60.00,Friday
135,521687544.94141465
3652,521687544.94141465
2,6, 1, 6, 0, 8, 0.00,60.00,Friday
135,635424693.0476123
3652,635255307.3483483
2,6, 1, 6, 0, 9, 0.00,60.00,Friday
135,571848970.6540241
3652,566517698.9376799
2,6, 1, 6, 0,10, 0.00,60.00,Friday
135,495556488.04043794
3652,479304057.0001197
2,6, 1, 6, 0,11, 0.00,60.00,Friday
135,405629998.016238
3652,373707810.9341978
2,6, 1, 6, 0,12, 0.00,60.00,Friday
135,372427870.8048036
3652,330782985.717312
2,6, 1, 6, 0,13, 0.00,60.00,Friday
135,385074581.4574924
3652,345061039.43898284
2,6, 1, 6, 0,14, 0.00,60.00,Friday
135,346285978.3527848
3652,317728624.92823875
2,6, 1, 6, 0,15, 0.00,60.00,Friday
135,329915125.48678076
3652,307680150.6659256
2,6, 1, 6, 0,16, 0.00,60.00,Friday
135,335641788.9022002
3652,323289616.42763376
2,6, 1, 6, 0,17, 0.00,60.00,Friday
135,382016121.96744007
3652,380681633.1226993
2,6, 1, 6, 0,18, 0.00,60.00,Friday
135,397478497.6898731
3652,397478497.68987316
2,6, 1, 6, 0,19, 0.00,60.00,Friday
135,390924581.4148032
3652,390924581.41480315
2,6, 1, 6, 0,20, 0.00,60.00,Friday
135,375227586.7498886
3652,375227586.7498886
2,6, 1, 6, 0,21, 0.00,60.00,Friday
135,373569826.25769174
3652,373569826.2576917
2,6, 1, 6, 0,22, 0.00,60.00,Friday
135,377602313.9405341
3652,377602313.9405342
2,6, 1, 6, 0,23, 0.00,60.00,Friday
135,75402743.90247798
3652,75402743.90247798
2,6, 1, 6, 0,24, 0.00,60.00,Friday
135,81106509.68472645
3652,81106509.68472645
2,7, 1, 7, 0, 1, 0.00,60.00,Saturday
135,68240123.25326562
3652,68240123.25326562
2,7, 1, 7, 0, 2, 0.00,60.00,Saturday
135,74285976.85565133
3652,74285976.85565133
2,7, 1, 7, 0, 3, 0.00,60.00,Saturday
135,85872941.92293495
3652,85872941.92293495
2,7, 1, 7, 0, 4, 0.00,60.00,Saturday
135,93935110.7624348
3652,93935110.7624348
2,7, 1, 7, 0, 5, 0.00,60.00,Saturday
135,113050849.20526268
3652,113050849.20526266
2,7, 1, 7, 0, 6, 0.00,60.00,Saturday
135,255248940.82028505
3652,255248940.820285
2,7, 1, 7, 0, 7, 0.00,60.00,Saturday
135,512656215.23062605
3652,512656215.23062605
2,7, 1, 7, 0, 8, 0.00,60.00,Saturday
135,584445499.955537
3652,584239360.7067688
2,7, 1, 7, 0, 9, 0.00,60.00,Saturday
135,443186208.8518829
3652,437399102.1262129
2,7, 1, 7, 0,10, 0.00,60.00,Saturday
135,363338857.38632697
3652,343325191.3900938
2,7, 1, 7, 0,11, 0.00,60.00,Saturday
135,315330487.45802933
3652,284885621.09404933
2,7, 1, 7, 0,12, 0.00,60.00,Saturday
135,333663508.1035986
3652,308289673.30766624
2,7, 1, 7, 0,13, 0.00,60.00,Saturday
135,284083212.4938494
3652,244998837.945324
2,7, 1, 7, 0,14, 0.00,60.00,Saturday
135,270601131.379778
3652,237851843.36886692
2,7, 1, 7, 0,15, 0.00,60.00,Saturday
135,277459616.8696583
3652,262576887.85879055
2,7, 1, 7, 0,16, 0.00,60.00,Saturday
135,312562555.62784266
3652,303725760.6831544
2,7, 1, 7, 0,17, 0.00,60.00,Saturday
135,339241849.30681604
3652,337304042.99375194
2,7, 1, 7, 0,18, 0.00,60.00,Saturday
135,71603744.34246938
3652,71603744.34246941
2,7, 1, 7, 0,19, 0.00,60.00,Saturday
135,67996197.89814085
3652,67996197.89814088
2,7, 1, 7, 0,20, 0.00,60.00,Saturday
135,66478175.31924352
3652,66478175.31924353
2,7, 1, 7, 0,21, 0.00,60.00,Saturday
135,83781804.5586602
3652,83781804.5586602
2,7, 1, 7, 0,22, 0.00,60.00,Saturday
135,88825299.1924298
3652,88825299.19242981
2,7, 1, 7, 0,23, 0.00,60.00,Saturday
135,109746792.26798046
3652,109746792.26798047
2,7, 1, 7, 0,24, 0.00,60.00,Saturday
135,105163997.13746351
3652,105163997.13746351
2,8, 1, 8, 0, 1, 0.00,60.00,Sunday
135,121357383.11248173
3652,121357383.11248174
2,8, 1, 8, 0, 2, 0.00,60.00,Sunday
135,114369502.62515771
3652,114369502.6251577
2,8, 1, 8, 0, 3, 0.00,60.00,Sunday
135,142583397.07576633
3652,142583397.07576633
2,8, 1, 8, 0, 4, 0.00,60.00,Sunday
135,127073340.61896414
3652,127073340.61896414
2,8, 1, 8, 0, 5, 0.00,60.00,Sunday
135,150635350.970555
3652,150635350.97055504
2,8, 1, 8, 0, 6, 0.00,60.00,Sunday
135,135635799.9361859
3652,135635799.9361859
2,8, 1, 8, 0, 7, 0.00,60.00,Sunday
135,168074543.64078137
3652,168074543.64078143
2,8, 1, 8, 0, 8, 0.00,60.00,Sunday
135,138945988.37444234
3652,138523316.51947117
2,8, 1, 8, 0, 9, 0.00,60.00,Sunday
135,126801403.71238124
3652,121328130.25410736
2,8, 1, 8, 0,10, 0.00,60.00,Sunday
135,86929092.53064373
3652,68800295.86943337
2,8, 1, 8, 0,11, 0.00,60.00,Sunday
135,100898215.7214658
3652,74393917.63528189
2,8, 1, 8, 0,12, 0.00,60.00,Sunday
135,86412580.00824514
3652,54596800.24679767
2,8, 1, 8, 0,13, 0.00,60.00,Sunday
135,64578237.35727082
3652,27332968.542970713
2,8, 1, 8, 0,14, 0.00,60.00,Sunday
135,59194862.26448799
3652,23527637.61455906
2,8, 1, 8, 0,15, 0.00,60.00,Sunday
135,59841103.25544558
3652,36191077.43003495
2,8, 1, 8, 0,16, 0.00,60.00,Sunday
135,59625927.89672116
3652,49264936.94026808
2,8, 1, 8, 0,17, 0.00,60.00,Sunday
135,76312184.0654252
3652,74880465.37007825
2,8, 1, 8, 0,18, 0.00,60.00,Sunday
135,97906782.88683583
3652,97906782.88683583
2,8, 1, 8, 0,19, 0.00,60.00,Sunday
135,106694533.53186765
3652,106694533.53186765
2,8, 1, 8, 0,20, 0.00,60.00,Sunday
135,100362553.18648893
3652,100362553.18648893
2,8, 1, 8, 0,21, 0.00,60.00,Sunday
135,108622132.31516045
3652,108622132.31516045
2,8, 1, 8, 0,22, 0.00,60.00,Sunday
135,102281060.25963195
3652,102281060.25963193
2,8, 1, 8, 0,23, 0.00,60.00,Sunday
135,113438935.75018166
3652,113438935.75018167
2,8, 1, 8, 0,24, 0.00,60.00,Sunday
135,110132633.23304568
3652,110132633.23304568
2,9, 1, 9, 0, 1, 0.00,60.00,Monday
135,129352158.73326541
3652,129352158.7332654
2,9, 1, 9, 0, 2, 0.00,60.00,Monday
135,121111195.27843422
3652,121111195.27843422
2,9, 1, 9, 0, 3, 0.00,60.00,Monday
135,130761801.08428022
3652,130761801.08428022
2,9, 1, 9, 0, 4, 0.00,60.00,Monday
135,121405538.60414192
3652,121405538.60414192
2,9, 1, 9, 0, 5, 0.00,60.00,Monday
135,136479887.81570196
3652,136479887.81570202
2,9, 1, 9, 0, 6, 0.00,60.00,Monday
135,288445872.34387076
3652,288445872.34387076
2,9, 1, 9, 0, 7, 0.00,60.00,Monday
135,606085584.1242131
3652,606085584.1242132
2,9, 1, 9, 0, 8, 0.00,60.00,Monday
135,680433386.751497
3652,680053416.713845
2,9, 1, 9, 0, 9, 0.00,60.00,Monday
135,551671556.4177563
3652,546169506.8633251
2,9, 1, 9, 0,10, 0.00,60.00,Monday
135,450703265.46847767
3652,435795292.74989414
2,9, 1, 9, 0,11, 0.00,60.00,Monday
135,439372763.20165646
3652,426762710.1453897
2,9, 1, 9, 0,12, 0.00,60.00,Monday
135,416135813.45916206
3652,398430445.4162472
2,9, 1, 9, 0,13, 0.00,60.00,Monday
135,400673203.29275954
3652,365898448.36235845
2,9, 1, 9, 0,14, 0.00,60.00,Monday
135,334039833.86818767
3652,301325333.68441385
2,9, 1, 9, 0,15, 0.00,60.00,Monday
135,306080490.05157965
3652,285143763.19074184
2,9, 1, 9, 0,16, 0.00,60.00,Monday
135,297007427.8456849
3652,285981071.3382553
2,9, 1, 9, 0,17, 0.00,60.00,Monday
135,326272372.3916144
3652,324852440.5723097
2,9, 1, 9, 0,18, 0.00,60.00,Monday
135,368619630.56407034
3652,368619630.5640703
2,9, 1, 9, 0,19, 0.00,60.00,Monday
135,365709601.5434785
3652,365709601.5434785
2,9, 1, 9, 0,20, 0.00,60.00,Monday
135,343185928.2638401
3652,343185928.2638401
2,9, 1, 9, 0,21, 0.00,60.00,Monday
135,348519580.1157338
3652,348519580.1157338
2,9, 1, 9, 0,22, 0.00,60.00,Monday
135,352815870.0842068
3652,352815870.0842069
2,9, 1, 9, 0,23, 0.00,60.00,Monday
135,75402743.90247798
3652,75402743.90247798
2,9, 1, 9, 0,24, 0.00,60.00,Monday
135,71865988.08834744
3652,71865988.08834744
2,10, 1,10, 0, 1, 0.00,60.00,Tuesday
135,58588651.21819277
3652,58588651.21819277
2,10, 1,10, 0, 2, 0.00,60.00,Tuesday
135,58588651.21819277
3652,58588651.21819277
2,10, 1,10, 0, 3, 0.00,60.00,Tuesday
135,65527693.144491866
3652,65527693.144491866
2,10, 1,10, 0, 4, 0.00,60.00,Tuesday
135,74835671.82351862
3652,74835671.82351862
2,10, 1,10, 0, 5, 0.00,60.00,Tuesday
135,81262264.7228791
3652,81262264.7228791
2,10, 1,10, 0, 6, 0.00,60.00,Tuesday
135,210548083.10879356
3652,210548083.10879356
2,10, 1,10, 0, 7, 0.00,60.00,Tuesday
135,460694569.38567966
3652,460694569.3856797
2,10, 1,10, 0, 8, 0.00,60.00,Tuesday
135,546804489.5437918
3652,546123578.2493147
2,10, 1,10, 0, 9, 0.00,60.00,Tuesday
135,467893829.577089
3652,461087615.22770894
2,10, 1,10, 0,10, 0.00,60.00,Tuesday
135,388203489.5156696
3652,373035409.43367493
2,10, 1,10, 0,11, 0.00,60.00,Tuesday
135,354360639.263449
3652,335602592.0650808
2,10, 1,10, 0,12, 0.00,60.00,Tuesday
135,334805382.76709896
3652,312106713.36913925
2,10, 1,10, 0,13, 0.00,60.00,Tuesday
135,349688737.80600107
3652,322526165.40763485
2,10, 1,10, 0,14, 0.00,60.00,Tuesday
135,309482507.1842124
3652,285172409.7135627
2,10, 1,10, 0,15, 0.00,60.00,Tuesday
135,311414589.7581858
3652,302320521.5018881
2,10, 1,10, 0,16, 0.00,60.00,Tuesday
135,321563658.329679
3652,317702816.78756773
2,10, 1,10, 0,17, 0.00,60.00,Tuesday
135,337987261.16454375
3652,337250288.15132284
2,10, 1,10, 0,18, 0.00,60.00,Tuesday
135,348820886.1198081
3652,348820886.11980814
2,10, 1,10, 0,19, 0.00,60.00,Tuesday
135,345920998.94473344
3652,345920998.94473344
2,10, 1,10, 0,20, 0.00,60.00,Tuesday
135,315410565.7489762
3652,315410565.7489762
2,10, 1,10, 0,21, 0.00,60.00,Tuesday
135,303230076.37482274
3652,303230076.37482274
2,10, 1,10, 0,22, 0.00,60.00,Tuesday
135,305598090.53801894
3652,305598090.53801894
2,10, 1,10, 0,23, 0.00,60.00,Tuesday
135,75402743.90247798
3652,75402743.90247798
2,10, 1,10, 0,24, 0.00,60.00,Tuesday
135,71865988.08834744
3652,71865988.08834744
2,11, 1,11, 0, 1, 0.00,60.00,Wednesday
135,58588651.21819277
3652,58588651.21819277
2,11, 1,11, 0, 2, 0.00,60.00,Wednesday
135,58588651.21819277
3652,58588651.21819277
2,11, 1,11, 0, 3, 0.00,60.00,Wednesday
135,58588651.21819277
3652,58588651.21819277
2,11, 1,11, 0, 4, 0.00,60.00,Wednesday
135,58588651.21819277
3652,58588651.21819277
2,11, 1,11, 0, 5, 0.00,60.00,Wednesday
135,58588651.21819277
3652,58588651.21819277
2,11, 1,11, 0, 6, 0.00,60.00,Wednesday
135,150739790.35512167
3652,150739790.35512167
2,11, 1,11, 0, 7, 0.00,60.00,Wednesday
135,352730108.10027176
3652,352730108.10027176
2,11, 1,11, 0, 8, 0.00,60.00,Wednesday
135,451164013.83246297
3652,450775394.35353625
2,11, 1,11, 0, 9, 0.00,60.00,Wednesday
135,371101547.76129305
3652,364789454.398197
2,11, 1,11, 0,10, 0.00,60.00,Wednesday
135,297200244.54278487
3652,278789987.53692645
2,11, 1,11, 0,11, 0.00,60.00,Wednesday
135,276276024.5917379
3652,254750805.58680648
2,11, 1,11, 0,12, 0.00,60.00,Wednesday
135,285059377.6757805
3652,270340107.97198194
2,11, 1,11, 0,13, 0.00,60.00,Wednesday
135,303119923.16967916
3652,277844183.0760153
2,11, 1,11, 0,14, 0.00,60.00,Wednesday
135,266365317.78277156
3652,239642574.16115138
2,11, 1,11, 0,15, 0.00,60.00,Wednesday
135,249815137.72568977
3652,224783321.03760242
2,11, 1,11, 0,16, 0.00,60.00,Wednesday
135,266746197.65390146
3652,259688082.80580384
2,11, 1,11, 0,17, 0.00,60.00,Wednesday
135,294147356.8057261
3652,293241576.83735037
2,11, 1,11, 0,18, 0.00,60.00,Wednesday
135,297135888.0574813
3652,297135888.05748135
2,11, 1,11, 0,19, 0.00,60.00,Wednesday
135,272846867.0998225
3652,272846867.09982246
2,11, 1,11, 0,20, 0.00,60.00,Wednesday
135,253724957.92794278
3652,253724957.92794278
2,11, 1,11, 0,21, 0.00,60.00,Wednesday
135,251167756.3853241
3652,251167756.3853241
2,11, 1,11, 0,22, 0.00,60.00,Wednesday
135,258310860.83341092
3652,258310860.83341086
2,11, 1,11, 0,23, 0.00,60.00,Wednesday
135,75402743.90247798
3652,75402743.90247798
2,11, 1,11, 0,24, 0.00,60.00,Wednesday
135,71865988.08834744
3652,71865988.08834744
2,12, 1,12, 0, 1, 0.00,60.00,Thursday
135,58588651.21819277
3652,58588651.21819277
2,12, 1,12, 0, 2, 0.00,60.00,Thursday
135,58588651.21819277
3652,58588651.21819277
2,12, 1,12, 0, 3, 0.00,60.00,Thursday
135,58588651.21819277
3652,58588651.21819277
2,12, 1,12, 0, 4, 0.00,60.00,Thursday
135,58588651.21819277
3652,58588651.21819277
2,12, 1,12, 0, 5, 0.00,60.00,Thursday
135,58588651.21819277
3652,58588651.21819277
2,12, 1,12, 0, 6, 0.00,60.00,Thursday
135,132830486.22993983
3652,132830486.22993983
2,12, 1,12, 0, 7, 0.00,60.00,Thursday
135,315374036.99246955
3652,315374036.99246955
2,12, 1,12, 0, 8, 0.00,60.00,Thursday
135,412986998.51002455
3652,412442206.676084
2,12, 1,12, 0, 9, 0.00,60.00,Thursday
135,342487527.004334
3652,335758251.5926822
2,12, 1,12, 0,10, 0.00,60.00,Thursday
135,275669652.4379304
3652,257159351.8902105
2,12, 1,12, 0,11, 0.00,60.00,Thursday
135,251770887.8241883
3652,221537416.23949587
2,12, 1,12, 0,12, 0.00,60.00,Thursday
135,243099379.80145106
3652,205135812.0708204
2,12, 1,12, 0,13, 0.00,60.00,Thursday
135,271164953.4169698
3652,231829186.10866225
2,12, 1,12, 0,14, 0.00,60.00,Thursday
135,226813138.49911124
3652,195328471.7174771
2,12, 1,12, 0,15, 0.00,60.00,Thursday
135,214981944.38507676
3652,189662836.1692704
2,12, 1,12, 0,16, 0.00,60.00,Thursday
135,216391058.01261324
3652,204200154.79956368
2,12, 1,12, 0,17, 0.00,60.00,Thursday
135,233429017.11660084
3652,231780437.726665
2,12, 1,12, 0,18, 0.00,60.00,Thursday
135,232422783.0288547
3652,232422783.0288547
2,12, 1,12, 0,19, 0.00,60.00,Thursday
135,191309261.6576064
3652,191309261.6576064
2,12, 1,12, 0,20, 0.00,60.00,Thursday
135,190700825.7712756
3652,190700825.77127558
2,12, 1,12, 0,21, 0.00,60.00,Thursday
135,191686903.43752933
3652,191686903.43752936
2,12, 1,12, 0,22, 0.00,60.00,Thursday
135,195586374.473908
3652,195586374.47390807
2,12, 1,12, 0,23, 0.00,60.00,Thursday
135,78590967.47820571
3652,78590967.47820571
2,12, 1,12, 0,24, 0.00,60.00,Thursday
135,71865988.08834744
3652,71865988.08834744
2,13, 1,13, 0, 1, 0.00,60.00,Friday
135,58588651.21819277
3652,58588651.21819277
2,13, 1,13, 0, 2, 0.00,60.00,Friday
135,58588651.21819277
3652,58588651.21819277
2,13, 1,13, 0, 3, 0.00,60.00,Friday
135,58588651.21819277
3652,58588651.21819277
2,13, 1,13, 0, 4, 0.00,60.00,Friday
135,58588651.21819277
3652,58588651.21819277
2,13, 1,13, 0, 5, 0.00,60.00,Friday
135,58588651.21819277
3652,58588651.21819277
2,13, 1,13, 0, 6, 0.00,60.00,Friday
135,82704964.72464743
3652,82704964.72464742
2,13, 1,13, 0, 7, 0.00,60.00,Friday
135,248043270.42495006
3652,248043270.42495003
2,13, 1,13, 0, 8, 0.00,60.00,Friday
135,346115073.68791986
3652,345717298.4543859
2,13, 1,13, 0, 9, 0.00,60.00,Friday
135,301041597.7655558
3652,295630875.2326493
2,13, 1,13, 0,10, 0.00,60.00,Friday
135,253590883.14483303
3652,235766318.91070247
2,13, 1,13, 0,11, 0.00,60.00,Friday
135,228089382.1865082
3652,196986518.77661255
2,13, 1,13, 0,12, 0.00,60.00,Friday
135,219483267.92242104
3652,181956202.3736803
2,13, 1,13, 0,13, 0.00,60.00,Friday
135,250078844.1660961
3652,213051705.0706713
2,13, 1,13, 0,14, 0.00,60.00,Friday
135,222813045.5432788
3652,190778493.97281426
2,13, 1,13, 0,15, 0.00,60.00,Friday
135,212589746.7475323
3652,189391085.69605583
2,13, 1,13, 0,16, 0.00,60.00,Friday
135,210209706.13404694
3652,202298413.8674874
2,13, 1,13, 0,17, 0.00,60.00,Friday
135,226309155.3530508
3652,224730438.16464013
2,13, 1,13, 0,18, 0.00,60.00,Friday
135,223389583.13245136
3652,223389583.13245133
2,13, 1,13, 0,19, 0.00,60.00,Friday
135,172731373.71193945
3652,172731373.7119395
2,13, 1,13, 0,20, 0.00,60.00,Friday
135,171296143.86535123
3652,171296143.8653512
2,13, 1,13, 0,21, 0.00,60.00,Friday
135,172732796.7476936
3652,172732796.7476936
2,13, 1,13, 0,22, 0.00,60.00,Friday
135,180029242.63159335
3652,180029242.63159335
2,13, 1,13, 0,23, 0.00,60.00,Friday
135,81825754.35479504
3652,81825754.35479505
2,13, 1,13, 0,24, 0.00,60.00,Friday
135,75052878.41755505
3652,75052878.41755505
2,14, 1,14, 0, 1, 0.00,60.00,Saturday
135,47338057.174814485
3652,47338057.17481448
2,14, 1,14, 0, 2, 0.00,60.00,Saturday
135,47338057.174814485
3652,47338057.17481448
2,14, 1,14, 0, 3, 0.00,60.00,Saturday
135,47338057.174814485
3652,47338057.17481448
2,14, 1,14, 0, 4, 0.00,60.00,Saturday
135,47338057.174814485
3652,47338057.17481448
2,14, 1,14, 0, 5, 0.00,60.00,Saturday
135,47338057.174814485
3652,47338057.17481448
2,14, 1,14, 0, 6, 0.00,60.00,Saturday
135,74826892.05333325
3652,74826892.05333325
2,14, 1,14, 0, 7, 0.00,60.00,Saturday
135,238574480.3111521
3652,238574480.3111521
2,14, 1,14, 0, 8, 0.00,60.00,Saturday
135,300938984.6400982
3652,300826053.8721583
2,14, 1,14, 0, 9, 0.00,60.00,Saturday
135,269459493.9785098
3652,267156662.18190593
2,14, 1,14, 0,10, 0.00,60.00,Saturday
135,248307365.62817585
3652,241343040.36146697
2,14, 1,14, 0,11, 0.00,60.00,Saturday
135,228436779.77236158
3652,217693228.07901192
2,14, 1,14, 0,12, 0.00,60.00,Saturday
135,225682822.0732534
3652,212247942.7129713
2,14, 1,14, 0,13, 0.00,60.00,Saturday
135,207892652.91875982
3652,189778594.96963227
2,14, 1,14, 0,14, 0.00,60.00,Saturday
135,179154543.94990376
3652,154042011.8337335
2,14, 1,14, 0,15, 0.00,60.00,Saturday
135,182116422.69644845
3652,164448396.38842756
2,14, 1,14, 0,16, 0.00,60.00,Saturday
135,179071611.94140273
3652,166209624.6421703
2,14, 1,14, 0,17, 0.00,60.00,Saturday
135,211082106.79532316
3652,207971664.41822374
2,14, 1,14, 0,18, 0.00,60.00,Saturday
135,73674626.66774487
3652,73674626.66774492
2,14, 1,14, 0,19, 0.00,60.00,Saturday
135,63289614.40527983
3652,63289614.40527985
2,14, 1,14, 0,20, 0.00,60.00,Saturday
135,49795345.174814485
3652,49795345.17481448
2,14, 1,14, 0,21, 0.00,60.00,Saturday
135,56632352.99877729
3652,56632352.99877729
2,14, 1,14, 0,22, 0.00,60.00,Saturday
135,62840020.57170702
3652,62840020.57170701
2,14, 1,14, 0,23, 0.00,60.00,Saturday
135,65405145.07520683
3652,65405145.07520684
2,14, 1,14, 0,24, 0.00,60.00,Saturday
135,65964047.259580344
3652,65964047.259580344
2,15, 1,15, 0, 1, 0.00,60.00,Sunday
135,68376849.3804874
3652,68376849.3804874
2,15, 1,15, 0, 2, 0.00,60.00,Sunday
135,68927242.14977987
3652,68927242.14977987
2,15, 1,15, 0, 3, 0.00,60.00,Sunday
135,72026480.93539113
3652,72026480.93539113
2,15, 1,15, 0, 4, 0.00,60.00,Sunday
135,73265406.27571069
3652,73265406.27571067
2,15, 1,15, 0, 5, 0.00,60.00,Sunday
135,83451728.93173955
3652,83451728.93173955
2,15, 1,15, 0, 6, 0.00,60.00,Sunday
135,87214025.9676916
3652,87214025.9676916
2,15, 1,15, 0, 7, 0.00,60.00,Sunday
135,105622828.11206171
3652,105622828.11206171